44
Lattice="5.43272198 0.00022397 0.0 0.00021109 5.43266687 0.0 0.0 0.0 17.12332659" Properties=species:S:1:pos:R:3:initial_magmoms:R:1:forces:R:3 energy=-312.1226477733612 free_energy=-312.1226477733612 stress="-0.01501112767843236 1.6846691772110052e-05 1.1967585802273107e-09 1.6846691772110052e-05 -0.014347068813341437 -4.760272200063663e-10 1.1967585802273107e-09 -4.760272200063663e-10 -0.026872897018582986" pbc="T T T"
Mn       0.00010530       2.71633339       5.32569965      -0.00000000       0.00000016       0.00000023       0.00007759
Mn       2.71646647       2.71644543      14.91498296       0.00000000      -0.00000005      -0.00000003       0.00058585
Mn       2.71636079       0.00011197       3.28238953      -0.00000000       0.00000006       0.00000002      -0.00084026
Mn       2.71646646       2.71644541      10.76654209       0.00000000      -0.00000005       0.00000005      -0.00099711
Mn       2.71646636       2.71644543       2.20454491       0.00000000       0.00000020      -0.00000018      -0.00068058
Mn       2.71646631       2.71644538       6.35309456       0.00000000       0.00000019      -0.00000003       0.00070103
Mn      -0.00000015      -0.00000001       8.53956256       0.00000000       0.00000010       0.00000004       0.00015681
Mn       2.71636092       0.00011200      15.98976715      -0.00000000      -0.00000005      -0.00000003       0.00091496
Mn      -0.00000024      -0.00000002       4.31134889       0.00000000       0.00000027      -0.00000002      -0.00038274
Mn       2.71636081       0.00011196       7.42841862      -0.00000000       0.00000002      -0.00000001       0.00068803
Mn       0.00010543       2.71633342       9.65476590      -0.00000000       0.00000003       0.00000013      -0.00046564
Mn      -0.00000010       0.00000002      17.10078874       0.00000000      -0.00000003      -0.00000005       0.00040993
Mn       2.71636093       0.00011198      11.84385608      -0.00000000      -0.00000009      -0.00000003      -0.00076457
Mn       0.00010541       2.71633346       1.09266503      -0.00000000      -0.00000007      -0.00000006      -0.00017073
Mn       0.00010550       2.71633344      13.88766402      -0.00000000      -0.00000012      -0.00000002      -0.00000863
Mn      -0.00000005       0.00000000      12.87269221       0.00000000      -0.00000010      -0.00000001      -0.00027514
Si       4.28590957       4.60255694       1.83984961       0.00000000       0.00027711       0.00003507       0.00060604
Si       1.77661428       3.60129258      12.80059268      -0.00000000       0.00018925      -0.00071576       0.00024153
Si       1.13795594       1.88523615      16.34565040      -0.00000000       0.00054386       0.00020924       0.00035293
Si       1.14702325       0.83033396       1.83984952       0.00000000      -0.00027720      -0.00003522       0.00060627
Si       0.85159600       1.69834589      11.62744959      -0.00000000       0.00012210       0.00022468       0.00002647
Si       1.14593885       4.60224883      10.40291050       0.00000000       0.00033416       0.00015450      -0.00000553
Si       0.85295236       4.41926032      15.12443872       0.00000000       0.00000327       0.00004773      -0.00005542
Si       3.65333114       0.88699361       5.39161708       0.00000000      -0.00029852      -0.00081814      -0.00039954
Si       4.58133695       3.73454495      11.62744959      -0.00000000      -0.00012224      -0.00022471       0.00002651
Si       0.85264938       1.01392147       6.56341325       0.00000000       0.00007168      -0.00029080      -0.00034142
Si       3.65645496       3.60128052       4.23869097      -0.00000000      -0.00024770      -0.00068916       0.00032316
Si       0.85150113       3.73486127       3.06512623      -0.00000000       0.00019089      -0.00046095       0.00031175
Si       4.29497700       3.54765473      16.34565037      -0.00000000      -0.00054401      -0.00020929       0.00035307
Si       1.77960142       4.54589713       5.39161711       0.00000000       0.00029880       0.00081831      -0.00039959
Si       4.28699408       0.83064201      10.40291052       0.00000000      -0.00033437      -0.00015447      -0.00000550
Si       1.88851959       4.06751711       0.52880384       0.00000000       0.00014067       0.00060022       0.00056155
Si       1.77951649       0.88700053      13.95306415       0.00000000       0.00024526      -0.00080980      -0.00032897
Si       1.77647760       1.83161026       4.23869093      -0.00000000       0.00024837       0.00068920       0.00032314
Si       3.65341650       4.54589032      13.95306416       0.00000000      -0.00024554       0.00080981      -0.00032897
Si       3.54441327       1.36537378       0.52880383       0.00000000      -0.00014063      -0.00060005       0.00056150
Si       1.13920594       3.54733335       7.78533802      -0.00000000      -0.00004673      -0.00007298      -0.00024376
Si       4.29372688       1.88555749       7.78533791      -0.00000000       0.00004657       0.00007300      -0.00024337
Si       4.58028331       4.41896932       6.56341328       0.00000000      -0.00007142       0.00029086      -0.00034142
Si       3.54452254       4.06971768       9.09272063      -0.00000000      -0.00016077      -0.00051431      -0.00052346
Si       1.88841031       1.36317322       9.09272056      -0.00000000       0.00016069       0.00051437      -0.00052346
Si       3.65631871       1.83159825      12.80059267      -0.00000000      -0.00018951       0.00071574       0.00024153
Si       4.58143162       1.69802965       3.06512627      -0.00000000      -0.00019093       0.00046066       0.00031156
Si       4.57998061       1.01363055      15.12443872       0.00000000      -0.00000352      -0.00004775      -0.00005540
