40
Lattice="12.344 0.0 7.558520044337464e-16 -6.075472770570019e-16 9.922 6.075472770570019e-16 0.0 0.0 6.161" Properties=species:S:1:pos:R:3:forces:R:3 energy=-243.1489971461031 free_energy=-243.1489971461031 stress="-0.03927213990145763 2.62080327367423e-16 1.7444959699757134e-16 2.62080327367423e-16 -0.029091595544432476 -1.30717209964576e-16 1.7444959699757134e-16 -1.30717209964576e-16 -0.038489098993820234" pbc="T T T"
Ru      -0.00000000       5.67594661       4.62075000      -0.00000000       0.00052513       0.00000000
Ru      -0.00000000       4.24605339       1.54025000      -0.00000000      -0.00052513       0.00000000
Ru       6.17200000       9.20705339       1.54025000       0.00000000      -0.00052513       0.00000000
Ru       6.17200000       0.71494661       4.62075000       0.00000000       0.00052513       0.00000000
Ru       3.10447876       3.10044969       1.63315919      -0.00022038      -0.00005356      -0.00042332
Ru       3.10447876       6.82155031       4.71365919      -0.00022038       0.00005356      -0.00042332
Ru       9.27647876       1.86055031       4.52784081      -0.00022038       0.00005356       0.00042332
Ru       3.06752124       1.86055031       4.71365919       0.00022038       0.00005356      -0.00042332
Ru       9.23952124       3.10044969       1.44734081       0.00022038      -0.00005356       0.00042332
Ru       3.06752124       8.06144969       1.63315919       0.00022038      -0.00005356      -0.00042332
Ru       9.27647876       8.06144969       1.44734081      -0.00022038      -0.00005356       0.00042332
Ru       9.23952124       6.82155031       4.52784081       0.00022038       0.00005356       0.00042332
Ru       6.17200000       4.52905980       1.54025000      -0.00000000       0.00028395       0.00000000
Ru       6.17200000       5.39294020       4.62075000       0.00000000      -0.00028395      -0.00000000
Ru      -0.00000000       0.43194020       4.62075000      -0.00000000      -0.00028395      -0.00000000
Ru      -0.00000000       9.49005980       1.54025000      -0.00000000       0.00028395      -0.00000000
Sn       4.08915700       5.66961030       2.61103011      -0.00039066      -0.00030793       0.00002507
Sn       4.08915700       4.25238970       5.69153011      -0.00039066       0.00030793       0.00002507
Sn      10.26115700       9.21338970       3.54996989      -0.00039066       0.00030793      -0.00002507
Sn       2.08284300       9.21338970       5.69153011       0.00039066       0.00030793       0.00002507
Sn       8.25484300       5.66961030       0.46946989       0.00039066      -0.00030793      -0.00002507
Sn       2.08284300       0.70861030       2.61103011       0.00039066      -0.00030793       0.00002507
Sn      10.26115700       0.70861030       0.46946989      -0.00039066      -0.00030793      -0.00002507
Sn       8.25484300       4.25238970       3.54996989       0.00039066       0.00030793      -0.00002507
Sn       1.69279754       5.92655478       0.59632999       0.00036394      -0.00019233      -0.00084153
Sn       1.69279754       3.99544522       3.67682999       0.00036394       0.00019233      -0.00084153
Sn       7.86479754       8.95644522       5.56467001       0.00036394       0.00019233       0.00084153
Sn       4.47920246       8.95644522       3.67682999      -0.00036394       0.00019233      -0.00084153
Sn      10.65120246       5.92655478       2.48417001      -0.00036394      -0.00019233       0.00084153
Sn       4.47920246       0.96555478       0.59632999      -0.00036394      -0.00019233      -0.00084153
Sn       7.86479754       0.96555478       2.48417001       0.00036394      -0.00019233       0.00084153
Sn      10.65120246       3.99544522       5.56467001      -0.00036394       0.00019233       0.00084153
Sn       5.23735469       7.20592361       0.16026503       0.00036094       0.00024998       0.00053892
Sn       5.23735469       2.71607639       3.24076503       0.00036094      -0.00024998       0.00053892
Sn      11.40935469       7.67707639       6.00073497       0.00036094      -0.00024998      -0.00053892
Sn       0.93464531       7.67707639       3.24076503      -0.00036094      -0.00024998       0.00053892
Sn       7.10664531       7.20592361       2.92023497      -0.00036094       0.00024998      -0.00053892
Sn       0.93464531       2.24492361       0.16026503      -0.00036094       0.00024998       0.00053892
Sn      11.40935469       2.24492361       2.92023497       0.00036094       0.00024998      -0.00053892
Sn       7.10664531       2.71607639       6.00073497      -0.00036094      -0.00024998      -0.00053892
