44
Lattice="5.456526699999999 -4.7260000000000005e-05 0.0 -4.7240000000000015e-05 5.45652445 0.0 0.0 0.0 17.15003717" Properties=species:S:1:pos:R:3:initial_magmoms:R:1:forces:R:3 energy=-312.1720817713434 free_energy=-312.1720817713434 stress="1.7478473380499938e-05 -6.578814568294321e-06 5.557767259751823e-18 -6.578814568294321e-06 1.6822616550486615e-05 4.862501503078844e-16 5.557767259751823e-18 4.862501503078844e-16 -0.017336351871233238" pbc="T T T"
Mn      -0.00000000      -0.00000000       4.28747391       0.00000000       0.00000000      -0.00000000       0.00008416
Mn      -0.00002362       2.72826222      13.88035249      -0.00000000       0.00000000       0.00000000      -0.00048338
Mn       2.72826335      -0.00002363      11.84471251      -0.00000000       0.00000000      -0.00000000       0.00033606
Mn       2.72823973       2.72823859       6.35568556       0.00000000       0.00000000       0.00000000      -0.00060499
Mn      -0.00000000      -0.00000000       0.00004205       0.00000000       0.00000000       0.00000000      -0.00002979
Mn       2.72823973       2.72823860       2.21929077       0.00000000       0.00000000      -0.00000000       0.00071433
Mn       2.72826335      -0.00002363       7.45717980      -0.00000000      -0.00000000       0.00000000      -0.00004634
Mn       0.00000000      -0.00000000      12.86253322       0.00000000      -0.00000000      -0.00000000      -0.00008242
Mn       2.72826335      -0.00002363      16.03230572      -0.00000000      -0.00000000       0.00000000      -0.00017182
Mn       2.72823973       2.72823859      10.79430465       0.00000000       0.00000000       0.00000000       0.00064674
Mn      -0.00002362       2.72826223       1.11781498      -0.00000000      -0.00000000       0.00000000       0.00010666
Mn      -0.00002362       2.72826222       5.30535779      -0.00000000      -0.00000000       0.00000000      -0.00031738
Mn      -0.00000000      -0.00000000       8.57496763       0.00000000      -0.00000000       0.00000000       0.00002828
Mn       2.72826335      -0.00002363       3.26959544      -0.00000000       0.00000000      -0.00000000       0.00046812
Mn      -0.00002362       2.72826223       9.69275468      -0.00000000      -0.00000000      -0.00000000       0.00010846
Mn       2.72823973       2.72823859      14.93076032       0.00000000       0.00000000      -0.00000000      -0.00075623
Si       4.38342493       4.61168921       1.93480388       0.00000000      -0.00030118      -0.00020045      -0.00010865
Si       4.21556497       1.89585821       7.90585192      -0.00000000       0.00005623      -0.00024581       0.00025199
Si       4.38331326       0.84472526      10.50965633       0.00000000      -0.00025499       0.00017569       0.00000973
Si       1.89588786       1.24119264       9.24385463      -0.00000000      -0.00025151      -0.00008801      -0.00002603
Si       3.70351417       0.86993192       5.44533596       0.00000000       0.00014461       0.00013584       0.00064246
Si       1.24122957       1.89589055      16.48123330      -0.00000000      -0.00005435      -0.00026934       0.00003149
Si       3.70352206       4.58654968      14.02047495      -0.00000000       0.00012787      -0.00011657       0.00044956
Si       0.86993907       3.70349419       3.12965303       0.00000000       0.00013774       0.00015276      -0.00055516
Si       3.56061622       1.24085888       0.66919821      -0.00000000       0.00026483      -0.00001947      -0.00025822
Si       0.84472258       4.38329018      15.21543330       0.00000000       0.00017896      -0.00027106      -0.00006452
Si       3.64029134       1.81617818      12.86254437      -0.00000000      -0.00007157       0.00006685      -0.00004845
Si       4.21524989       3.56058664      16.48123330      -0.00000000       0.00005435       0.00026934       0.00003149
Si       0.86993448       1.75296962      11.70461376       0.00000000       0.00011562      -0.00011911      -0.00053826
Si       1.81620051       1.81618792       4.28749085       0.00000000       0.00005746       0.00005797       0.00004886
Si       1.75296529       4.58654527       5.44533596       0.00000000      -0.00014461      -0.00013584       0.00064246
Si       3.56059160       4.21528455       9.24385463      -0.00000000       0.00025151       0.00008801      -0.00002603
Si       4.58654039       1.75298300       3.12965303       0.00000000      -0.00013774      -0.00015276      -0.00055516
Si       4.61169678       4.38339329       6.64020626       0.00000000      -0.00019906      -0.00028639       0.00016497
Si       4.61175688       1.07318701      15.21543330       0.00000000      -0.00017896       0.00027106      -0.00006452
Si       1.07305453       0.84478798       1.93480388       0.00000000       0.00030118       0.00020045      -0.00010865
Si       4.58654498       3.70350757      11.70461376       0.00000000      -0.00011562       0.00011911      -0.00053826
Si       1.24091449       3.56061898       7.90585192      -0.00000000      -0.00005623       0.00024581       0.00025199
Si       1.07316620       4.61175193      10.50965633       0.00000000       0.00025499      -0.00017569       0.00000973
Si       0.84478268       1.07308390       6.64020626       0.00000000       0.00019906       0.00028639       0.00016497
Si       1.75295740       0.86992751      14.02047495      -0.00000000      -0.00012787       0.00011657       0.00044956
Si       3.64027895       3.64028927       4.28749085       0.00000000      -0.00005746      -0.00005797       0.00004886
Si       1.81618812       3.64029901      12.86254437      -0.00000000       0.00007157      -0.00006685      -0.00004845
Si       1.89586324       4.21561831       0.66919821      -0.00000000      -0.00026483       0.00001947      -0.00025822
