20
Lattice="6.2044697 0.00013762 3.5e-07 0.00013661 6.20446413 2.96e-06 1.428e-05 5.68e-06 9.97783319" Properties=species:S:1:pos:R:3:initial_magmoms:R:1:forces:R:3 energy=-121.73028219885595 free_energy=-121.73028219885595 stress="-0.024144199521884305 2.097228064122233e-05 4.947769219658888e-07 2.097228064122233e-05 -0.02414360561293858 -1.2939832828912938e-07 4.947769219658888e-07 -1.2939832828912938e-07 -0.01444242267202495" pbc="T T T"
Sn       1.36424450       2.13098482       0.83569791      -0.00000000      -0.00024236       0.00002124      -0.00005817
Sn       2.13102425       1.36444023       4.15333812      -0.00000000      -0.00000158      -0.00028154       0.00005324
Sn       2.13115403       4.84006985       9.14232930      -0.00000000       0.00000203       0.00023097      -0.00004973
Sn       4.07349586       1.36457555       9.14235396      -0.00000000      -0.00001078      -0.00026530      -0.00009993
Sn       1.36435844       4.07351724       5.82448254      -0.00000000      -0.00034383       0.00001598       0.00006566
Sn       5.10573244       5.10581759       7.48342821      -0.00000000      -0.00059006      -0.00048507      -0.00003920
Sn       4.07357857       4.84017189       4.15333533      -0.00000000      -0.00001956       0.00017326      -0.00000918
Sn       1.09899428       5.10573597       2.49450012       0.00000000       0.00049283      -0.00059884       0.00005516
Sn       5.10563040       1.09886071       2.49450299       0.00000000      -0.00053333       0.00057781       0.00000510
Sn       4.84024247       2.13108699       5.82447679      -0.00000000       0.00033105      -0.00002117       0.00006890
Sn       4.84039232       4.07361837       0.83571597      -0.00000000       0.00011349      -0.00005657       0.00002100
Sn       1.09888540       1.09879802       7.48341911      -0.00000000       0.00056668       0.00051565      -0.00000974
Ru       3.10237917       6.20452851       1.26202489      -0.00000000       0.00002165       0.00001410       0.00029437
Ru       0.00008584       3.10224641       8.71576715       0.00000000       0.00003071      -0.00005787      -0.00035226
Ru      -0.00000156       0.00000197       4.98880879      -0.00000000       0.00003683       0.00000942      -0.00000118
Ru       6.20453484       3.10237222       3.72673352       0.00000000       0.00001816       0.00002817      -0.00028575
Ru       3.10237182       6.20452730       6.25087940       0.00000000       0.00000410       0.00002544       0.00034263
Ru       0.00013937       6.20446399      -0.00003042       0.00000000       0.00000721       0.00004870      -0.00000658
Ru       3.10230488       3.10229089       2.49439608       0.00000000       0.00009880       0.00011274      -0.00012331
Ru       3.10230607       3.10230193       7.48327131      -0.00000000       0.00001797      -0.00000712       0.00012897
